5
ch4.log	Energy:  -25426.7298914
C          0.00000        0.00000        0.00000
H          0.62805        0.62805        0.62805
H         -0.62805       -0.62805        0.62805
H          0.62805       -0.62805       -0.62805
H         -0.62805        0.62805       -0.62805
