2
co.log	Energy:  -71108.0294327
O          0.00000        0.00000        0.48159
C          0.00000        0.00000       -0.64212
