4
h2co.log	Energy:  -71855.6039970
O          0.00000        0.00000        0.67107
C          0.00000        0.00000       -0.52514
H          0.00000        0.93856       -1.10885
H          0.00000       -0.93856       -1.10885
