3
h2o.log	Energy:  -47966.7786183
O          0.00000        0.00000        0.11644
H          0.00000        0.76000       -0.46578
H          0.00000       -0.76000       -0.46578
