9
h3coch3.log	Energy:  -97287.1961383
C          0.00000        1.16487       -0.19356
C          0.00000       -1.16487       -0.19356
H          0.88973        1.21886       -0.83346
H          0.88973       -1.21886       -0.83346
H         -0.88973        1.21886       -0.83346
H          0.00000        2.01537        0.48478
H          0.00000       -2.01537        0.48478
H         -0.88973       -1.21886       -0.83346
O          0.00000        0.00000        0.58587
