4
hcch.log	Energy:  -48523.9838421
C          0.00000        0.00000        0.59698
C          0.00000        0.00000       -0.59698
H          0.00000        0.00000        1.65948
H          0.00000        0.00000       -1.65948
