4
hnnh.log	Energy:  -69432.1983181
N          0.00000        0.61521        0.00000
N          0.00000       -0.61521        0.00000
H          0.98456        0.91674        0.00000
H         -0.98456       -0.91674        0.00000
