2
n2.log	Energy:  -68730.8925972
N          0.00000        0.00000        0.54409
N          0.00000        0.00000       -0.54409
