4
nh3.log	Energy:  -35496.1389017
N          0.00000        0.11155        0.00000
H         -0.94038       -0.26031        0.00000
H          0.47019       -0.26028        0.81440
H          0.47019       -0.26028       -0.81440
