2
o2.log	Energy:  -94297.7515187
O          0.00000        0.00000        0.59751
O          0.00000        0.00000       -0.59751
