7
allene.log	Energy:  -73202.3867740
C          0.00000        0.00000        0.00000
C          0.00000        0.00000        1.29823
C          0.00000        0.00000       -1.29823
H         -0.92767        0.00000       -1.85562
H          0.92767        0.00000       -1.85562
H          0.00000        0.92767        1.85562
H          0.00000       -0.92767        1.85562
