4
c-hono.log	Energy: -129091.2395622
O          1.07632        0.07021        0.00000
N          0.00000        0.54113        0.00000
O         -1.00499       -0.38639        0.00000
H         -0.57068       -1.25843        0.00000
