13
C.log	Energy: -247836.6359697
O         -2.28872        0.99377        0.00000
N          0.00000        1.04777        0.00000
N          2.26930        1.01663        0.00000
N         -1.20163       -0.98334        0.00000
C          1.10144        0.33936        0.00000
C          1.13043       -1.09557        0.00000
C         -1.21735        0.43015        0.00000
C         -0.06802       -1.71087        0.00000
H          2.05218       -1.65389        0.00000
H         -0.17777       -2.78594        0.00000
H          3.15202        0.54678        0.00000
H          2.23669        2.01914        0.00000
H         -2.10600       -1.42207        0.00000
