1
c1.log	Energy:  -23746.2224139
C          0.00000        0.00000        0.00000
