2
c2.log	Energy:  -47604.9232091
C          0.00000        0.00000        0.62304
C          0.00000        0.00000       -0.62304
