5
c2h2p.log	Energy:  -48686.0616927
C          0.00000        0.60765       -0.07429
H          0.00000        1.68577       -0.08370
C          0.00000       -0.60765       -0.07429
H          0.00000       -1.68577       -0.08370
H          0.00000        0.00000        1.05892
