5
c2n3m.log	Energy: -150912.9309846
N          2.20839       -0.40309       -0.00011
C          1.13991        0.06188        0.00023
N          0.00001        0.70007       -0.00006
C         -1.13995        0.06196       -0.00007
N         -2.20836       -0.40313        0.00003

