4
ch3m.log	Energy:  -24999.2633232
C          0.00000        0.12274        0.00000
H          1.03624       -0.24548        0.00000
H         -0.51812       -0.24547        0.89741
H         -0.51812       -0.24547       -0.89741
