4
ch3p.log	Energy:  -24774.4857695
C          0.00000        0.00000        0.00000
H          0.00000        1.09077        0.00000
H          0.94464       -0.54539        0.00000
H         -0.94464       -0.54539        0.00000
