3
co2.log	Energy: -118347.3275649
O          0.00000        0.00000        1.15650
C          0.00000        0.00000        0.00000
O          0.00000        0.00000       -1.15650
