5
dioxirane.log	Energy: -118996.1760424
C          0.00000        0.00000        0.72919
H          0.92673        0.00000        1.29907
H         -0.92673        0.00000        1.29907
O          0.00000        0.73476       -0.43583
O          0.00000       -0.73476       -0.43583
