17
Gp.log	Energy: -340714.1517499
N          2.17757        0.65498        0.00000
C          1.92257        1.96753        0.00000
N          0.61600        2.14473        0.00000
C          0.00000        0.91359        0.00000
C         -1.38543        0.53547        0.00000
O         -2.35378        1.24571        0.00000
N         -1.47198       -0.87210        0.00000
C         -0.41777       -1.74837        0.00000
N         -0.69572       -3.05285        0.00000
N          0.84372       -1.36286        0.00000
C          0.98369       -0.04038        0.00000
H          3.09533        0.23745        0.00000
H         -1.63097       -3.41378        0.00000
H          0.07274       -3.69934        0.00000
H          2.66294        2.74796        0.00000
H         -2.41833       -1.22441        0.00000
H          0.14305        3.03614        0.00000
