1
h1.log	Energy:    -315.5136786
H          0.00000        0.00000        0.00000
