2
h2.log	Energy:    -738.3702564
H          0.00000        0.00000        0.37156
H          0.00000        0.00000       -0.37156
