6
h2cch2.log	Energy:  -49315.3444812
C          0.00000        0.00000        0.66090
C          0.00000        0.00000       -0.66090
H          0.00000        0.92183        1.22824
H          0.00000       -0.92183        1.22824
H          0.00000        0.92183       -1.22824
H          0.00000       -0.92183       -1.22824
