7
h3cooh.log	Energy: -119773.4383119
C         -1.11945       -0.22165       -0.01944
H         -1.96087        0.47021       -0.03525
H         -1.17684       -0.85152        0.87015
H         -1.13690       -0.84533       -0.91707
O          0.02386        0.59987        0.01548
O          1.15498       -0.26352        0.10424
H          1.56057       -0.13424       -0.75894
