5
h3o2.log	Energy:  -95561.4625265
O          1.21561        0.09410       -0.06083
O         -1.21561       -0.09410       -0.06084
H          0.00003        0.00001       -0.07039
H          1.49521       -0.61206        0.52185
H         -1.49523        0.61203        0.52187
