4
h3op.log	Energy:  -48140.9559898
O          0.00000        0.07342        0.00000
H         -0.93690       -0.19583        0.00000
H          0.46845       -0.19576        0.81139
H          0.46845       -0.19576       -0.81139
