7
h5o2.log	Energy:  -96142.6048019
O          1.19468       -0.03708       -0.05625
H          1.65111       -0.45100        0.68520
H          1.68575        0.73725       -0.35224
O         -1.19468       -0.03707        0.05625
H         -0.00000        0.02075        0.00000
H         -1.68576        0.73726        0.35220
H         -1.65111       -0.45106       -0.68517
