3
hcn.log	Energy:  -58623.7476144
C          0.00000        0.00000       -0.49550
H          0.00000        0.00000       -1.56150
N          0.00000        0.00000        0.64778
