4
hcno.log	Energy: -105784.9113888
C          0.00000        0.00000       -1.17053
H          0.00000        0.00000       -2.23033
N          0.00000        0.00000       -0.01993
O          0.00000        0.00000        1.17413
