8
hcooch3.log	Energy: -143750.2373917
C          1.35641        0.41241        0.00000
O          0.00000        0.86397        0.00000
C         -0.92651       -0.09047        0.00000
O         -0.71723       -1.26857        0.00000
H          1.96645        1.30966        0.00000
H          1.55713       -0.18639        0.88664
H          1.55713       -0.18639       -0.88664
H         -1.92224        0.36828        0.00000
