5
hcooh.log	Energy: -119088.7081237
C          0.00000        0.41939        0.00000
H         -0.37410        1.44939        0.00000
O          1.15357        0.10943        0.00000
O         -1.02456       -0.43867        0.00000
H         -0.65794       -1.33186        0.00000
