10
hisp.log	Energy: -142194.4037043
C         -0.67585       -0.97162       -0.00000
N         -1.06678        0.34730        0.00000
C          0.67585       -0.97162        0.00000
H         -2.01916        0.67744        0.00000
C          0.00000        1.13295        0.00000
N          1.06678        0.34730        0.00000
H          1.38105       -1.78197        0.00000
H          0.00000        2.20868        0.00000
H          2.01916        0.67744        0.00000
H         -1.38105       -1.78197       -0.00001
