1
hm.log	Energy:    -334.2205492
H          0.00000        0.00000        0.00000
