3
hnc.log	Energy:  -58610.5855565
H          0.00000        0.00000        1.42245
N          0.00000        0.00000        0.42718
C          0.00000        0.00000       -0.73546
