5
hnch2.log	Energy:  -59383.0571789
C          0.05610        0.58185        0.00000
N          0.05610       -0.67925        0.00000
H         -0.84453        1.20134        0.00000
H          1.00924        1.10817        0.00000
H         -0.89404       -1.04588        0.00000
