4
hnco.log	Energy: -105855.7820603
C          0.00000        0.04860        0.00000
O         -0.44493        1.11966        0.00000
N          0.32654       -1.11478        0.00000
H          1.27366       -1.44543        0.00000
