4
hnnn.log	Energy: -103406.8413909
H          1.01197       -1.43046        0.00000
N          0.04472       -1.12054        0.00000
N          0.00000        0.11110        0.00000
N         -0.18929        1.21378        0.00000
