3
hno.log	Energy:  -81878.1453764
N          0.06256        0.57476        0.00000
H         -0.93833        0.91458        0.00000
O          0.06256       -0.61723        0.00000
