5
hno3.log	Energy: -176275.7988587
H         -1.71329        0.20268        0.00004
O         -1.11208       -0.55467       -0.00002
N          0.14337        0.03467        0.00000
O          0.15624        1.23718       -0.00000
O          1.04456       -0.73818        0.00002
