6
hoch3.log	Energy:  -72624.9113872
C          0.04634        0.66015        0.00000
H          1.08693        0.97787        0.00000
H         -0.43865        1.07181        0.89023
H         -0.43865        1.07181       -0.89023
O          0.04634       -0.75253        0.00000
H         -0.85833       -1.06212        0.00000
