4
hocn.log	Energy: -105827.6541962
C          0.00000        0.17999        0.00000
N          0.06882        1.32772        0.00000
O         -0.14861       -1.10367        0.00000
H          0.70715       -1.54460        0.00000
