2
hom.log	Energy:  -47567.7820135
O          0.00000        0.00000        0.10679
H          0.00000        0.00000       -0.85433
