4
honc.log	Energy: -105769.2870305
H          0.92597       -1.34627        0.00000
O         -0.00217       -1.08293        0.00000
N          0.00000        0.23631        0.00000
C         -0.15144        1.39259        0.00000
