4
hooh.log	Energy:  -95109.0067624
O          0.00000        0.71308       -0.05890
H          0.78015        0.90179        0.47118
O          0.00000       -0.71308       -0.05890
H         -0.78015       -0.90179        0.47118
