5
ketene.log	Energy:  -95762.4136708
C          0.00000        0.00000       -1.20361
H          0.00000        0.93933       -1.73124
H          0.00000       -0.93933       -1.73124
C          0.00000        0.00000        0.10285
O          0.00000        0.00000        1.25838
