1
n1.log	Energy:  -34253.0128625
N          0.00000        0.00000        0.00000
