3
n2o.log	Energy: -115882.5483707
N          0.00000        0.00000       -0.07334
N          0.00000        0.00000       -1.18847
O          0.00000        0.00000        1.10409
