4
nccn.log	Energy: -116494.1355311
N          0.00000        0.00000        1.83808
C          0.00000        0.00000        0.69076
C          0.00000        0.00000       -0.69076
N          0.00000        0.00000       -1.83808
