3
nh2m.log	Energy:  -35081.7082062
N          0.00000        0.00000        0.14253
H          0.00000        0.79990       -0.49886
H          0.00000       -0.79990       -0.49886
