5
nh4p.log	Energy:  -35710.7585113
N          0.00000        0.00000        0.00000
H          0.58978        0.58978        0.58978
H         -0.58978       -0.58978        0.58978
H          0.58978       -0.58978       -0.58978
H         -0.58978        0.58978       -0.58978
