4
no3m.log	Energy: -175943.4643582
O          0.08384       -1.24595        0.00003
N          0.00001       -0.00000       -0.00009
O         -1.12107        0.55037        0.00003
O          1.03722        0.69558        0.00003

