1
o1.log	Energy:  -47106.0658328
O          0.00000        0.00000        0.00000
