3
o3.log	Energy: -141457.1773874
O          0.00000        0.00000        0.42509
O          0.00000        1.06284       -0.21255
O          0.00000       -1.06284       -0.21255
