5
oxirene.log	Energy:  -95681.8014211
C          0.00000        0.62840       -0.45781
C          0.00000       -0.62840       -0.45781
H          0.00000       -1.64399       -0.79117
H          0.00000        1.64399       -0.79117
O          0.00000        0.00000        0.88451
