14
phenolp.log	Energy: -193150.3109317
C          0.00000        0.97817        0.00000
C          1.24901        0.29745        0.00000
C          1.25731       -1.04725        0.00000
C          0.01674       -1.83775        0.00000
C         -1.23384       -1.06484        0.00000
C         -1.24188        0.28027        0.00000
O          0.05863        2.27367        0.00000
H          2.15374        0.88747        0.00000
H          2.19680       -1.58408        0.00000
H          0.01936       -2.52821        0.85576
H         -2.16690       -1.61297        0.00000
H         -2.16782        0.84048        0.00000
H         -0.80762        2.69981        0.00000
H          0.01936       -2.52821       -0.85576
