13
phenol.log	Energy: -192944.3666193
C          0.00000        0.93488        0.00000
C          1.20956        0.25176        0.00000
C          1.21294       -1.13195        0.00000
C          0.02179       -1.84508        0.00000
C         -1.18011       -1.15609        0.00000
C         -1.19715        0.23037        0.00000
O          0.04707        2.29375        0.00000
H          2.13121        0.81627        0.00000
H          2.15761       -1.65871        0.00000
H          0.03173       -2.92563        0.00000
H         -2.11638       -1.69750        0.00000
H         -2.14019        0.76433        0.00000
H         -0.84278        2.64787        0.00000
