11
R20.log	Energy: -121747.0129080
C          0.00000        0.43633        0.00000
C         -1.38549        0.82717        0.00000
C         -0.49251        1.78494        0.00000
C          0.96161       -0.47063        0.00000
C          0.71362       -1.95036        0.00000
H         -2.42545        0.55495        0.00000
H         -0.29224        2.84128        0.00000
H          1.98895       -0.12767        0.00000
H          1.15011       -2.43252        0.87816
H         -0.35486       -2.16821        0.00000
H          1.15011       -2.43252       -0.87816
