14
R44.log	Energy: -146447.2781265
C          0.00000        0.21979        0.00000
C          1.21788        1.15286        0.00000
C          0.92057       -0.92698        0.00000
C          2.00840       -0.14461        0.00000
C         -1.30973        0.41357        0.00000
C         -2.33471       -0.67550        0.00000
H          1.32425        1.77354        0.89074
H          1.32425        1.77354       -0.89074
H          0.77453       -1.99775        0.00000
H          3.06945       -0.34708        0.00000
H         -1.67391        1.43585        0.00000
H         -2.98111       -0.60586       -0.87740
H         -1.87082       -1.66123        0.00000
H         -2.98111       -0.60586        0.87740
